ITEM: TIMESTEP
0
ITEM: NUMBER OF ATOMS
10
ITEM: BOX BOUNDS pp pp pp
0 50
0 50
0 50
ITEM: ATOMS id mol type x y z
0 0 1 16.84126611355399 47.313445394243246 6.923823675319722
1 1 1 14.62385459516152 28.3972260539171 9.501317700745084
2 2 1 18.40389284578843 4.462129608460661 35.12330488110646
3 3 1 26.2559942094344 42.283473078455245 11.966763481448957
4 4 1 8.148012900765716 14.409065925222318 27.247094568452678
5 5 1 49.712122798531105 41.63403891300842 8.583368549691613
6 6 1 37.42977677824636 24.59847956508314 45.58549632755958
7 7 1 38.4345882839246 7.098904660896389 8.708245808480651
8 8 1 25.855084896615534 3.3008954608479897 36.163219421072206
9 9 1 27.979049366516623 31.77685338201164 33.39526244199339
