ITEM: TIMESTEP
0
ITEM: NUMBER OF ATOMS
5
ITEM: BOX BOUNDS pp pp pp
0 50
0 50
0 50
ITEM: ATOMS id mol type x y z
0 0 1 46.044899833276716 24.200372241261384 45.41854156720566
1 1 1 24.65104458394957 34.22687083582834 44.78108396859502
2 2 1 1.8031973289730772 4.997294127224117 48.4136978480316
3 3 1 15.16211243583271 8.697072875597726 3.6894665803457016
4 4 1 28.51152504190309 21.142622565864798 43.435762206366036
