ITEM: TIMESTEP
1
ITEM: NUMBER OF ATOMS
10
ITEM: BOX BOUNDS pp pp pp
0 50
0 50
0 50
ITEM: ATOMS id mol type x y z
0 0 1 17.029476381657837 47.225677706881235 6.791813411466421
1 1 1 14.469073580154191 28.450995594054465 9.594258186450821
2 2 1 18.481403051954935 4.672044547752064 35.10647007959792
3 3 1 26.490751611778887 42.16502100084705 11.974018365248584
4 4 1 8.36919839325165 14.652862499342556 27.351513874940125
5 5 1 49.80449731641847 41.789094048910094 8.51274279626405
6 6 1 37.35200545916184 24.434654013919744 45.7859344906873
7 7 1 38.683362985443196 7.204631885535657 8.860236100369567
8 8 1 25.69572981295091 3.451305547061972 36.0487600243942
9 9 1 28.2038653463186 31.932526783390763 33.27597457108052
