ITEM: TIMESTEP
1
ITEM: NUMBER OF ATOMS
5
ITEM: BOX BOUNDS pp pp pp
0 50
0 50
0 50
ITEM: ATOMS id mol type x y z
0 0 1 41.83186163800718 19.20488124080574 44.74798306304824
1 1 1 23.730818560322742 36.49028471293936 45.63221366679834
2 2 1 1.5507431566386778 5.82358951185837 49.21835399159572
3 3 1 19.594830962350105 9.043673000554055 1.0813420002263463
4 4 1 24.31665406546349 24.204390625485715 43.95266333101309
