ITEM: TIMESTEP
2
ITEM: NUMBER OF ATOMS
10
ITEM: BOX BOUNDS pp pp pp
0 50
0 50
0 50
ITEM: ATOMS id mol type x y z
0 0 1 17.217686649761685 47.137910019519225 6.65980314761312
1 1 1 14.314292565146863 28.50476513419183 9.687198672156558
2 2 1 18.55891325812144 4.881959487043466 35.089635278089375
3 3 1 26.72550901412337 42.04656892323885 11.981273249048211
4 4 1 8.590383885737586 14.896659073462793 27.45593318142757
5 5 1 49.896871834305834 41.94414918481177 8.442117042836486
6 6 1 37.27423414007732 24.27082846275635 45.986372653815025
7 7 1 38.932137686961795 7.310359110174925 9.012226392258484
8 8 1 25.536374729286283 3.601715633275954 35.93430062771619
9 9 1 28.42868132612058 32.08820018476989 33.15668670016765
