ITEM: TIMESTEP
2
ITEM: NUMBER OF ATOMS
5
ITEM: BOX BOUNDS pp pp pp
0 50
0 50
0 50
ITEM: ATOMS id mol type x y z
0 0 1 37.61882344273765 14.209390240350094 44.07742455889082
1 1 1 22.810592536695914 38.753698590050384 46.483343365001666
2 2 1 4.904683642250433 6.649884896492623 46.85040583122304
3 3 1 24.0275494888675 9.390273125510383 5.852150580798394
4 4 1 20.121783089023886 27.26615868510663 44.46956445566015
