ITEM: TIMESTEP
3
ITEM: NUMBER OF ATOMS
5
ITEM: BOX BOUNDS pp pp pp
0 50
0 50
0 50
ITEM: ATOMS id mol type x y z
0 0 1 33.40578524746812 9.213899239894449 43.4068660547334
1 1 1 21.890366513069086 41.017112467161404 47.33447306320499
2 2 1 8.258624127862188 7.476180281126877 44.482457670850366
3 3 1 28.460268015384894 9.736873250466711 10.622959161370442
4 4 1 15.926912112584281 30.32792674472755 44.986465580307204
