ITEM: TIMESTEP
3
ITEM: NUMBER OF ATOMS
10
ITEM: BOX BOUNDS pp pp pp
0 50
0 50
0 50
ITEM: ATOMS id mol type x y z
0 0 1 17.405896917865533 47.050142332157215 6.527792883759819
1 1 1 14.159511550139534 28.55853467432919 9.780139157862296
2 2 1 18.636423464287944 5.0918744263348685 35.07280047658083
3 3 1 26.960266416467856 41.928116845630655 11.988528132847838
4 4 1 8.81156937822352 15.14045564758303 27.56035248791502
5 5 1 49.9892463521932 42.09920432071345 8.371491289408922
6 6 1 37.1964628209928 24.107002911592954 46.186810816942746
7 7 1 39.180912388480394 7.416086334814193 9.1642166841474
8 8 1 25.377019645621658 3.752125719489936 35.81984123103818
9 9 1 28.653497305922556 32.243873586149014 33.037398829254776
