ITEM: TIMESTEP
4
ITEM: NUMBER OF ATOMS
5
ITEM: BOX BOUNDS pp pp pp
0 50
0 50
0 50
ITEM: ATOMS id mol type x y z
0 0 1 29.19274705219858 4.218408239438803 42.73630755057598
1 1 1 20.970140489442258 43.280526344272424 48.18560276140831
2 2 1 11.612564613473943 8.302475665761131 42.11450951047769
3 3 1 32.89298654190229 10.08347337542304 15.39376774194249
4 4 1 11.732041136144677 33.389694804348466 45.50336670495426
