ITEM: TIMESTEP
4
ITEM: NUMBER OF ATOMS
10
ITEM: BOX BOUNDS pp pp pp
0 50
0 50
0 50
ITEM: ATOMS id mol type x y z
0 0 1 17.59410718596938 46.962374644795204 6.395782619906518
1 1 1 14.004730535132206 28.612304214466555 9.873079643568033
2 2 1 18.71393367045445 5.301789365626271 35.05596567507229
3 3 1 27.19502381881234 41.80966476802246 11.995783016647465
4 4 1 9.032754870709455 15.384252221703267 27.664771794402466
5 5 1 49.91837912991944 42.254259456615124 8.300865535981359
6 6 1 37.11869150190828 23.94317736042956 46.38724898007047
7 7 1 39.42968708999899 7.521813559453461 9.316206976036316
8 8 1 25.217664561957033 3.902535805703918 35.705381834360175
9 9 1 28.878313285724534 32.39954698752814 32.918110958341906
