ITEM: TIMESTEP
5
ITEM: NUMBER OF ATOMS
10
ITEM: BOX BOUNDS pp pp pp
0 50
0 50
0 50
ITEM: ATOMS id mol type x y z
0 0 1 17.78231745407323 46.874606957433194 6.263772356053217
1 1 1 13.849949520124877 28.666073754603918 9.96602012927377
2 2 1 18.791443876620953 5.511704304917673 35.03913087356374
3 3 1 27.429781221156826 41.69121269041426 12.003037900447092
4 4 1 9.25394036319539 15.628048795823505 27.769191100889913
5 5 1 49.82600461203207 42.4093145925168 8.230239782553795
6 6 1 37.04092018282376 23.779351809266164 46.58768714319819
7 7 1 39.67846179151759 7.627540784092729 9.468197267925232
8 8 1 25.058309478292408 4.052945891917901 35.59092243768217
9 9 1 29.103129265526512 32.555220388907266 32.798823087429035
