ITEM: TIMESTEP
5
ITEM: NUMBER OF ATOMS
5
ITEM: BOX BOUNDS pp pp pp
0 50
0 50
0 50
ITEM: ATOMS id mol type x y z
0 0 1 24.979708856929044 0.7770827610168425 42.06574904641856
1 1 1 20.04991446581543 45.543940221383444 49.036732459611635
2 2 1 14.966505099085698 9.128771050395384 39.74656135010501
3 3 1 37.32570506841968 10.430073500379368 20.164576322514538
4 4 1 7.537170159705072 36.45146286396938 46.020267829601316
