ITEM: TIMESTEP
6
ITEM: NUMBER OF ATOMS
10
ITEM: BOX BOUNDS pp pp pp
0 50
0 50
0 50
ITEM: ATOMS id mol type x y z
0 0 1 17.970527722177078 46.786839270071184 6.131762092199915
1 1 1 13.695168505117548 28.71984329474128 10.058960614979508
2 2 1 18.868954082787457 5.721619244209076 35.0222960720552
3 3 1 27.66453862350131 41.572760612806064 12.010292784246719
4 4 1 9.475125855681325 15.871845369943742 27.87361040737736
5 5 1 49.73363009414471 42.56436972841848 8.159614029126232
6 6 1 36.96314886373924 23.61552625810277 46.78812530632591
7 7 1 39.92723649303619 7.733268008731997 9.620187559814148
8 8 1 24.898954394627783 4.203355978131883 35.47646304100416
9 9 1 29.32794524532849 32.71089379028639 32.679535216516165
