ITEM: TIMESTEP
6
ITEM: NUMBER OF ATOMS
5
ITEM: BOX BOUNDS pp pp pp
0 50
0 50
0 50
ITEM: ATOMS id mol type x y z
0 0 1 20.766670661659507 5.772573761472488 41.39519054226114
1 1 1 19.129688442188602 47.807354098494464 49.88786215781496
2 2 1 18.320445584697453 9.955066435029638 37.378613189732334
3 3 1 41.75842359493707 10.776673625335697 24.935384903086586
4 4 1 3.3422991832654674 39.5132309235903 46.53716895424837
