ITEM: TIMESTEP
7
ITEM: NUMBER OF ATOMS
5
ITEM: BOX BOUNDS pp pp pp
0 50
0 50
0 50
ITEM: ATOMS id mol type x y z
0 0 1 16.55363246638997 10.768064761928134 40.72463203810372
1 1 1 18.209462418561774 49.929232024394516 49.26100814398172
2 2 1 21.674386070309207 10.781361819663891 35.01066502935966
3 3 1 46.19114212145446 11.123273750292025 29.706193483658634
4 4 1 0.8525717931741372 42.574998983211216 47.05407007889543
