ITEM: TIMESTEP
7
ITEM: NUMBER OF ATOMS
10
ITEM: BOX BOUNDS pp pp pp
0 50
0 50
0 50
ITEM: ATOMS id mol type x y z
0 0 1 18.158737990280926 46.69907158270917 5.999751828346614
1 1 1 13.54038749011022 28.773612834878644 10.151901100685246
2 2 1 18.946464288953962 5.931534183500478 35.005461270546654
3 3 1 27.899296025845796 41.45430853519787 12.017547668046346
4 4 1 9.69631134816726 16.115641944063977 27.978029713864807
5 5 1 49.64125557625734 42.71942486432015 8.088988275698668
6 6 1 36.88537754465472 23.451700706939373 46.98856346945363
7 7 1 40.17601119455479 7.838995233371265 9.772177851703065
8 8 1 24.739599310963158 4.353766064345866 35.36200364432615
9 9 1 29.552761225130467 32.86656719166552 32.560247345603294
