ITEM: TIMESTEP
8
ITEM: NUMBER OF ATOMS
10
ITEM: BOX BOUNDS pp pp pp
0 50
0 50
0 50
ITEM: ATOMS id mol type x y z
0 0 1 18.346948258384774 46.61130389534716 5.867741564493313
1 1 1 13.385606475102891 28.827382375016008 10.244841586390983
2 2 1 19.023974495120466 6.14144912279188 34.98862646903811
3 3 1 28.13405342819028 41.33585645758967 12.024802551845973
4 4 1 9.917496840653195 16.359438518184213 28.082449020352254
5 5 1 49.54888105836998 42.87448000022183 8.018362522271104
6 6 1 36.807606225570204 23.28787515577598 47.18900163258135
7 7 1 40.42478589607339 7.944722458010533 9.92416814359198
8 8 1 24.580244227298532 4.504176150559848 35.24754424764814
9 9 1 29.777577204932445 33.02224059304464 32.44095947469042
