ITEM: TIMESTEP
8
ITEM: NUMBER OF ATOMS
5
ITEM: BOX BOUNDS pp pp pp
0 50
0 50
0 50
ITEM: ATOMS id mol type x y z
0 0 1 12.340594271120434 15.76355576238378 40.0540735339463
1 1 1 17.289236394934946 47.665818147283495 48.409878445778396
2 2 1 25.028326555920962 11.607657204298144 32.64271686898698
3 3 1 49.37613935202815 11.469873875248354 34.47700206423068
4 4 1 5.047442769613742 45.63676704283213 47.570971203542484
