ITEM: TIMESTEP
9
ITEM: NUMBER OF ATOMS
5
ITEM: BOX BOUNDS pp pp pp
0 50
0 50
0 50
ITEM: ATOMS id mol type x y z
0 0 1 8.127556075850897 20.759046762839425 39.38351502978888
1 1 1 16.369010371308118 45.402404270172475 47.55874874757507
2 2 1 28.382267041532717 12.433952588932398 30.274768708614307
3 3 1 44.943420825510756 11.816474000204682 39.247810644802726
4 4 1 9.242313746053346 48.69853510245305 48.08787232818954
