ITEM: TIMESTEP
9
ITEM: NUMBER OF ATOMS
10
ITEM: BOX BOUNDS pp pp pp
0 50
0 50
0 50
ITEM: ATOMS id mol type x y z
0 0 1 18.535158526488622 46.52353620798515 5.735731300640012
1 1 1 13.230825460095563 28.88115191515337 10.33778207209672
2 2 1 19.10148470128697 6.351364062083283 34.971791667529565
3 3 1 28.368810830534766 41.217404379981474 12.0320574356456
4 4 1 10.13868233313913 16.60323509230445 28.1868683268397
5 5 1 49.456506540482614 43.029535136123506 7.947736768843541
6 6 1 36.729834906485685 23.124049604612583 47.38943979570907
7 7 1 40.67356059759199 8.050449682649802 10.076158435480897
8 8 1 24.420889143633907 4.654586236773831 35.133084850970135
9 9 1 30.002393184734423 33.17791399442377 32.32167160377755
