ITEM: TIMESTEP
0
ITEM: NUMBER OF ATOMS
5
ITEM: BOX BOUNDS pp pp pp
0 50
0 50
0 50
ITEM: ATOMS id mol type x y z
0 0 1 11.82471821402794 24.15528224581783 2.124126608779849
1 1 1 33.85330482021784 11.592732064718138 36.26978698656179
2 2 1 35.34260218509063 46.73434028088157 24.734216244304847
3 3 1 20.834927170658787 5.231071626034442 1.3975523860661827
4 4 1 20.460234806299127 40.52494196965563 38.266750959895475
