ITEM: TIMESTEP
0
ITEM: NUMBER OF ATOMS
10
ITEM: BOX BOUNDS pp pp pp
0 50
0 50
0 50
ITEM: ATOMS id mol type x y z
0 0 1 28.63099800970761 35.081132756251606 38.93408752862081
1 1 1 19.40486960248998 24.627685916552647 16.560831995007717
2 2 1 40.89368667928251 44.54719031705902 1.9581063896509496
3 3 1 41.498591864949425 10.735550686649788 4.711879681821645
4 4 1 36.962520414829484 20.612491804984984 22.82778808100693
5 5 1 7.337604911166998 36.57890301133179 29.20912197725522
6 6 1 15.201095862766138 38.42403072847685 45.14733319983621
7 7 1 39.65988676532635 1.3716800216288016 6.717953919565657
8 8 1 35.21016856124235 2.8908092468666737 0.6226160990816769
9 9 1 3.163069564537585 26.10345200288815 2.683133354864147
