ITEM: TIMESTEP
1
ITEM: NUMBER OF ATOMS
10
ITEM: BOX BOUNDS pp pp pp
0 50
0 50
0 50
ITEM: ATOMS id mol type x y z
0 0 1 28.81920827781146 34.993365068889595 38.802077264767505
1 1 1 19.250088587482654 24.68145545669001 16.653772480713453
2 2 1 40.97119688544902 44.75710525635042 1.9412715881424032
3 3 1 41.73334926729391 10.617098609041594 4.719134565621273
4 4 1 37.18370590731542 20.85628837910522 22.932207387494376
5 5 1 7.429979429054361 36.733958147233466 29.138496223827655
6 6 1 15.123324543681617 38.26020517731346 45.34777136296393
7 7 1 39.90866146684495 1.4774072462680699 6.869944211454573
8 8 1 35.05081347757772 3.041219333080656 0.5081567024036668
9 9 1 3.3878855443395635 26.259125404267273 2.5638454839512757
