ITEM: TIMESTEP
1
ITEM: NUMBER OF ATOMS
5
ITEM: BOX BOUNDS pp pp pp
0 50
0 50
0 50
ITEM: ATOMS id mol type x y z
0 0 1 16.037756409297476 19.159791245362186 1.4535681046224311
1 1 1 32.93307879659102 13.85614594182916 37.12091668476511
2 2 1 31.98866169947887 47.560635665515825 27.10216440467752
3 3 1 25.26764569717618 5.5776717509907705 46.62674380549414
4 4 1 16.265363829859524 43.586710029276546 38.78365208454253
