ITEM: TIMESTEP
2
ITEM: NUMBER OF ATOMS
10
ITEM: BOX BOUNDS pp pp pp
0 50
0 50
0 50
ITEM: ATOMS id mol type x y z
0 0 1 29.007418545915307 34.905597381527585 38.6700670009142
1 1 1 19.095307572475328 24.735224996827373 16.74671296641919
2 2 1 41.048707091615526 44.96702019564182 1.9244367866338568
3 3 1 41.968106669638395 10.498646531433401 4.726389449420901
4 4 1 37.40489139980136 21.100084953225455 23.036626693981823
5 5 1 7.522353946941725 36.88901328313514 29.06787047040009
6 6 1 15.045553224597096 38.09637962615007 45.548209526091654
7 7 1 40.157436168363546 1.583134470907338 7.0219345033434895
8 8 1 34.89145839391309 3.191629419294638 0.3936973057256567
9 9 1 3.612701524141542 26.414798805646395 2.444557613038404
