ITEM: TIMESTEP
2
ITEM: NUMBER OF ATOMS
5
ITEM: BOX BOUNDS pp pp pp
0 50
0 50
0 50
ITEM: ATOMS id mol type x y z
0 0 1 20.250794604567012 14.16430024490654 0.7830096004650131
1 1 1 32.012852772964195 16.119559818940182 37.972046382968436
2 2 1 28.634721213867117 48.38693105015008 29.470112565050194
3 3 1 29.700364223693576 5.924271875947099 41.85593522492209
4 4 1 12.07049285341992 46.64847808889746 39.30055320918959
