ITEM: TIMESTEP
3
ITEM: NUMBER OF ATOMS
10
ITEM: BOX BOUNDS pp pp pp
0 50
0 50
0 50
ITEM: ATOMS id mol type x y z
0 0 1 29.195628814019155 34.817829694165574 38.5380567370609
1 1 1 18.940526557468 24.788994536964736 16.839653452124924
2 2 1 41.126217297782034 45.176935134933224 1.9076019851253103
3 3 1 42.20286407198288 10.380194453825208 4.7336443332205285
4 4 1 37.626076892287294 21.34388152734569 23.14104600046927
5 5 1 7.6147284648290885 37.04406841903682 28.997244716972528
6 6 1 14.967781905512576 37.932554074986676 45.748647689219375
7 7 1 40.406210869882145 1.6888616955466063 7.173924795232406
8 8 1 34.73210331024846 3.34203950550862 0.27923790904764656
9 9 1 3.8375175039435208 26.570472207025517 2.3252697421255326
