ITEM: TIMESTEP
3
ITEM: NUMBER OF ATOMS
5
ITEM: BOX BOUNDS pp pp pp
0 50
0 50
0 50
ITEM: ATOMS id mol type x y z
0 0 1 24.46383279983655 9.168809244450895 0.11245109630759509
1 1 1 31.092626749337366 18.382973696051202 38.82317608117176
2 2 1 25.280780728255362 49.21322643478434 31.838060725422867
3 3 1 34.13308275021097 6.270872000903427 37.08512664435004
4 4 1 7.875621876980315 49.71024614851838 39.81745433383664
