ITEM: TIMESTEP
4
ITEM: NUMBER OF ATOMS
5
ITEM: BOX BOUNDS pp pp pp
0 50
0 50
0 50
ITEM: ATOMS id mol type x y z
0 0 1 28.676870995106086 4.173318243995249 49.441892592150175
1 1 1 30.17240072571054 20.646387573162222 39.67430577937508
2 2 1 21.926840242643607 0.03952181941859578 34.20600888579554
3 3 1 38.56580127672836 6.617472125859756 32.31431806377799
4 4 1 3.68075090054071 2.7720142081392964 40.3343554584837
