ITEM: TIMESTEP
4
ITEM: NUMBER OF ATOMS
10
ITEM: BOX BOUNDS pp pp pp
0 50
0 50
0 50
ITEM: ATOMS id mol type x y z
0 0 1 29.383839082123004 34.730062006803564 38.406046473207596
1 1 1 18.785745542460674 24.8427640771021 16.93259393783066
2 2 1 41.20372750394854 45.386850074224625 1.8907671836167639
3 3 1 42.437621474327365 10.261742376217015 4.740899217020156
4 4 1 37.84726238477323 21.587678101465926 23.245465306956717
5 5 1 7.707102982716452 37.199123554938495 28.926618963544964
6 6 1 14.890010586428055 37.768728523823285 45.949085852347096
7 7 1 40.65498557140074 1.7945889201858745 7.325915087121322
8 8 1 34.57274822658383 3.492449591722602 0.16477851236963642
9 9 1 4.062333483745499 26.72614560840464 2.205981871212661
