ITEM: TIMESTEP
5
ITEM: NUMBER OF ATOMS
5
ITEM: BOX BOUNDS pp pp pp
0 50
0 50
0 50
ITEM: ATOMS id mol type x y z
0 0 1 32.88990919037562 49.1778272435396 48.771334087992756
1 1 1 29.25217470208371 22.909801450273243 40.525435477578405
2 2 1 18.572899757031852 0.8658172040528493 36.57395704616822
3 3 1 42.99851980324575 6.964072250816084 27.54350948320594
4 4 1 49.485879924101106 5.833782267760213 40.851256583130755
