ITEM: TIMESTEP
5
ITEM: NUMBER OF ATOMS
10
ITEM: BOX BOUNDS pp pp pp
0 50
0 50
0 50
ITEM: ATOMS id mol type x y z
0 0 1 29.57204935022685 34.642294319441554 38.27403620935429
1 1 1 18.630964527453347 24.896533617239463 17.025534423536396
2 2 1 41.28123771011505 45.59676501351603 1.8739323821082174
3 3 1 42.67237887667185 10.143290298608822 4.748154100819784
4 4 1 38.06844787725917 21.83147467558616 23.349884613444164
5 5 1 7.799477500603816 37.35417869084017 28.8559932101174
6 6 1 14.812239267343534 37.60490297265989 46.14952401547482
7 7 1 40.90376027291934 1.9003161448251427 7.477905379010238
8 8 1 34.413393142919205 3.6428596779365843 0.05031911569162628
9 9 1 4.287149463547478 26.88181900978376 2.0866940002997896
