ITEM: TIMESTEP
6
ITEM: NUMBER OF ATOMS
10
ITEM: BOX BOUNDS pp pp pp
0 50
0 50
0 50
ITEM: ATOMS id mol type x y z
0 0 1 29.7602596183307 34.55452663207954 38.14202594550099
1 1 1 18.47618351244602 24.950303157376826 17.11847490924213
2 2 1 41.35874791628156 45.80667995280743 1.857097580599671
3 3 1 42.907136279016335 10.024838221000628 4.755408984619412
4 4 1 38.289633369745104 22.075271249706397 23.45430391993161
5 5 1 7.891852018491179 37.50923382674185 28.785367456689837
6 6 1 14.734467948259013 37.4410774214965 46.34996217860254
7 7 1 41.15253497443794 2.006043369464411 7.629895670899154
8 8 1 34.254038059254576 3.7932697641505664 49.935859719013614
9 9 1 4.511965443349457 27.037492411162884 1.9674061293869183
