ITEM: TIMESTEP
6
ITEM: NUMBER OF ATOMS
5
ITEM: BOX BOUNDS pp pp pp
0 50
0 50
0 50
ITEM: ATOMS id mol type x y z
0 0 1 37.10294738564515 44.18233624308396 48.100775583835336
1 1 1 28.331948678456882 25.173215327384263 41.37656517578173
2 2 1 15.218959271420097 1.692112588687103 38.941905206540895
3 3 1 47.43123832976314 7.310672375772413 22.772700902633893
4 4 1 45.2910089476615 8.89555032738113 41.36815770777781
