ITEM: TIMESTEP
7
ITEM: NUMBER OF ATOMS
5
ITEM: BOX BOUNDS pp pp pp
0 50
0 50
0 50
ITEM: ATOMS id mol type x y z
0 0 1 41.315985580914685 39.186845242628316 47.43021707967792
1 1 1 27.411722654830054 27.436629204495283 42.22769487398505
2 2 1 11.865018785808342 2.5184079733213567 41.30985336691357
3 3 1 1.8639568562805309 7.657272500728741 18.001892322061845
4 4 1 41.0961379712219 11.957318387002047 41.88505883242487
