ITEM: TIMESTEP
7
ITEM: NUMBER OF ATOMS
10
ITEM: BOX BOUNDS pp pp pp
0 50
0 50
0 50
ITEM: ATOMS id mol type x y z
0 0 1 29.948469886434548 34.46675894471753 38.01001568164769
1 1 1 18.321402497438694 25.00407269751419 17.211415394947867
2 2 1 41.436258122448066 46.01659489209883 1.8402627790911246
3 3 1 43.14189368136082 9.906386143392435 4.76266386841904
4 4 1 38.51081886223104 22.319067823826632 23.55872322641906
5 5 1 7.984226536378543 37.664288962643525 28.714741703262273
6 6 1 14.656696629174492 37.27725187033311 46.55040034173026
7 7 1 41.40130967595654 2.1117705941036795 7.7818859627880705
8 8 1 34.09468297558995 3.9436798503645485 49.821400322335606
9 9 1 4.736781423151435 27.193165812542006 1.848118258474047
