ITEM: TIMESTEP
8
ITEM: NUMBER OF ATOMS
10
ITEM: BOX BOUNDS pp pp pp
0 50
0 50
0 50
ITEM: ATOMS id mol type x y z
0 0 1 30.136680154538396 34.37899125735552 37.878005417794384
1 1 1 18.166621482431367 25.057842237651553 17.304355880653603
2 2 1 41.513768328614574 46.22650983139023 1.8234279775825781
3 3 1 43.376651083705305 9.787934065784242 4.7699187522186675
4 4 1 38.73200435471698 22.562864397946868 23.663142532906505
5 5 1 8.076601054265906 37.8193440985452 28.64411594983471
6 6 1 14.578925310089971 37.11342631916972 46.75083850485798
7 7 1 41.65008437747514 2.217497818742948 7.933876254676987
8 8 1 33.93532789192532 4.094089936578531 49.7069409256576
9 9 1 4.961597402953414 27.348839213921128 1.7288303875611757
