ITEM: TIMESTEP
8
ITEM: NUMBER OF ATOMS
5
ITEM: BOX BOUNDS pp pp pp
0 50
0 50
0 50
ITEM: ATOMS id mol type x y z
0 0 1 45.52902377618422 34.19135424217267 46.7596585755205
1 1 1 26.491496631203226 29.700043081606303 43.078824572188374
2 2 1 8.511078300196587 3.34470335795561 43.67780152728625
3 3 1 6.2966753827979245 8.00387262568507 13.231083741489797
4 4 1 36.9012669947823 15.019086446622964 42.401959957071924
