ITEM: TIMESTEP
9
ITEM: NUMBER OF ATOMS
5
ITEM: BOX BOUNDS pp pp pp
0 50
0 50
0 50
ITEM: ATOMS id mol type x y z
0 0 1 49.74206197145375 29.195863241717028 46.08910007136308
1 1 1 25.5712706075764 31.963456958717323 43.9299542703917
2 2 1 5.157137814584832 4.170998742589863 46.045749687658926
3 3 1 10.729393909315318 8.350472750641398 8.46027516091775
4 4 1 32.706396018342694 18.08085450624388 42.91886108171898
