ITEM: TIMESTEP
9
ITEM: NUMBER OF ATOMS
10
ITEM: BOX BOUNDS pp pp pp
0 50
0 50
0 50
ITEM: ATOMS id mol type x y z
0 0 1 30.324890422642245 34.29122356999351 37.74599515394108
1 1 1 18.01184046742404 25.111611777788916 17.39729636635934
2 2 1 41.59127853478108 46.43642477068163 1.8065931760740317
3 3 1 43.61140848604979 9.669481988176049 4.777173636018295
4 4 1 38.953189847202914 22.806660972067103 23.767561839393952
5 5 1 8.168975572153268 37.97439923444688 28.573490196407146
6 6 1 14.50115399100545 36.94960076800633 46.9512766679857
7 7 1 41.89885907899374 2.3232250433822164 8.085866546565903
8 8 1 33.77597280826069 4.244500022792513 49.59248152897959
9 9 1 5.186413382755393 27.50451261530025 1.6095425166483044
